% Model:              HydroFlux_CAD_211205_improved_injector.mph
% Version:            COMSOL 5.5.0.359
% Date:               Jan 14 2022, 15:59
% Dimension:          3
% Nodes:              251
% Expressions:        5
% Description:        Velocity field, x component, U+, k+, y+, Turbulent kinetic energy
% Length unit:        m
% x                       y                        z                        u (m/s)                  uplus (1)                k/u_tau_probe^2 (1)      yplus (1)                k (m^2/s^2)
0.185                     0.065                    0.06428025302494224      21.39022494309346        29.097570809797514       0.09408032801959505      957.0326554841365        0.05084123117252544
0.185                     0.065                    0.065                    21.429886883897694       29.151523778224703       0.09004539753876056      970.1400509659723        0.04866074522334328
0.185                     0.065                    0.04685743786389953      18.48713846743606        25.148441498762313       0.8021647368917426       325.13076253467995       0.4334917159118199
0.185                     0.065                    0.04710680764525996      18.61782284853493        25.326214198342395       0.7675772373209093       337.7742559655561        0.41480054956093193
0.185                     0.065                    0.04682280180404186      18.46898714203685        25.12374987081074        0.806968746017977        323.41359030091803       0.4360878137750303
0.185                     0.065                    0.0465908225364833       18.347416409435358       24.958374658082416       0.839144187538403        312.1477535256951        0.45347549826606803
0.185                     0.065                    0.046596309637616705     18.35029197203053        24.962286346082593       0.8383831285718296       312.4095988910108        0.45306422020539394
0.185                     0.065                    0.04657224013015092      18.337678139394672       24.9451274854684         0.84172156065691         311.2626324219301        0.4548683167786541
0.185                     0.065                    0.045610713072805245     18.09389453254738        24.613503541289298       0.9218006124998567       265.3961986547396        0.4981432252799928
0.185                     0.065                    0.046076806711776754     18.21206696208953        24.774255971220086       0.8829828419610825       286.7523281339758        0.4771660105199335
0.185                     0.065                    0.04613709188889432      18.227351542804005       24.795047906359653       0.8779620993965568       289.6309201205234        0.4744527893954533
0.185                     0.065                    0.04635467267584308      18.282516531264616       24.870089995081237       0.8598412748342215       300.25544029519307       0.46466025305971076
0.185                     0.065                    0.04608899365792209      18.215156815531582       24.77845916354561        0.8819678740673309       287.3320183205393        0.476617519476108
0.185                     0.065                    0.045444627321257765     18.051785490218442       24.556221729426223       0.9356327656430666       258.15104459108545       0.5056181534649927
0.185                     0.065                    0.045381526342710005     18.035786996958738       24.53445864410511        0.9408880171660097       255.44600197295242       0.5084581037837466
0.185                     0.065                    0.045336887206182695     18.024469281429013       24.51906291872553        0.9446057073764785       253.54789721385185       0.5104671523425368
0.185                     0.065                    0.04746000735349086      18.77321425039327        25.53759637552079        0.7285553334223315       355.4076168854064        0.3937130206517379
0.185                     0.065                    0.04756466073324997      18.819256857482145       25.600229097878803       0.7169931094667229       360.8182941064433        0.38746476755388337
0.185                     0.065                    0.047743015052635875     18.897724441319294       25.706970194947647       0.6972883222067539       370.24502447739104       0.3768162540401883
0.185                     0.065                    0.04787568175330673      18.923230690826365       25.74166688014375        0.6897307546695329       374.69823983781055       0.3727321267167611
0.185                     0.065                    0.048364967423021        19.017299830323008       25.869631100005968       0.6618578259303621       391.6386699207355        0.3576695302812091
0.185                     0.065                    0.04882446445273626      19.105641862109508       25.98980461534897        0.635681853982127        408.3292751590231        0.3435239732981533
0.185                     0.065                    0.04912450594405249      19.176064113104154       26.08560147771734        0.6140812364431678       420.29782546407966       0.3318509486299273
0.185                     0.065                    0.04944598798731094      19.251518641213924       26.188243851999747       0.5909370685095735       433.5723431066054        0.31934378568761124
0.185                     0.065                    0.049765272506646564     19.326457392053754       26.29018460366369        0.5679511049415868       447.24261426511885       0.306922116757632
0.185                     0.065                    0.049958647595911274     19.37184414510771        26.351925154047226       0.5540296258606597       455.76922099121145       0.2993989166251933
0.185                     0.065                    0.050485911491138805     19.495597397390384       26.520269293990484       0.5160707899245057       480.0248141000738        0.27888587215039073
0.185                     0.065                    0.05203875817837667      19.93555660278962        27.11875501195672        0.3893672148452926       565.8180238294746        0.21041496131719276
0.185                     0.065                    0.05206217272779772      19.94219051368548        27.127779259834035       0.38745671901534495      567.2545075159848        0.20938252486433215
0.185                     0.065                    0.05116004442831925      19.686595641977505       26.780088204787642       0.4610653254949519       515.1134515926235        0.24916078942924408
0.185                     0.065                    0.052370662292633784     20.029593104639673       27.246674834144983       0.36228570177288594      586.630146128419         0.19578004777470145
0.185                     0.065                    0.05284881917324419      20.165066569585353       27.43096222474479        0.3232707837388157       618.4138719002747        0.17469629404316514
0.185                     0.065                    0.05562989558428397      20.572029874330042       27.984562928257784       0.22904923570679891      720.0466091741913        0.12377874724282616
0.185                     0.065                    0.056263066719801386     20.680588950949616       28.132238112945558       0.20555679013072742      745.1369863415865        0.11108337424102012
0.185                     0.065                    0.05471885575665002      20.415829383019304       27.77208012975842        0.26285139813613057      685.9698527942224        0.142045515550043
0.185                     0.065                    0.05531549157997361      20.51812437156966        27.91123414430246        0.2407145163013164       708.0261056878053        0.13008269239143058
0.185                     0.065                    0.05317481353378192      20.208780828299563       27.4904276460631         0.31273816681120564      629.5230599157834        0.16900444301181303
0.185                     0.065                    0.053962471881379884     20.314401982998405       27.6341063140546         0.28728955588616084      657.4947740169663        0.15525195364134253
0.185                     0.065                    0.057414015449523445     20.870988931412022       28.391243192528776       0.1677024657368575       792.1174344532209        0.09062680805018304
0.185                     0.065                    0.05755611947043926      20.89449701835568        28.423221735356904       0.16302871132320992      798.2097545559482        0.08810110014089115
0.185                     0.065                    0.05793935580512333      20.957895316431          28.509463767517623       0.15042419458148534      814.9808376162232        0.0812895895629251
0.185                     0.065                    0.05649888123174705      20.719599444907974       28.185304904589792       0.19780092855196785      754.4335173828013        0.10689208834982196
0.185                     0.065                    0.05690161409387756      20.786223028653303       28.275934360371096       0.18455517744814456      770.6951000601805        0.09973405321007466
0.185                     0.065                    0.05713389321850561      20.82464866799667        28.328205562038207       0.1769155935930779       780.3020430673316        0.0956056040750287
0.185                     0.065                    0.05817812955581009      20.99739535348015        28.5631964948772         0.14257100461582947      825.6891120419721        0.07704570718187613
0.185                     0.065                    0.058435144667718764     21.039913035651598       28.621034188073203       0.13411786229152514      837.4456473949814        0.07247760913108381
0.185                     0.065                    0.05708939126500234      20.81728676658547        28.318191013421867       0.1783792481769622       778.4482595616169        0.09639656646453577
0.185                     0.065                    0.06171774142788481      21.24942536892139        28.906038201311134       0.10847883283437731      905.4218783731661        0.05862221713671762
0.185                     0.065                    0.06274382732965744      21.305804609584904       28.982732062725567       0.10271335539653126      925.5748278487506        0.05550653953006154
0.185                     0.065                    0.061007082439508774     21.210377552294997       28.85292063886019        0.11247195695430352      891.8451667621517        0.06078011082985474
0.185                     0.065                    0.061227039750758216     21.222463310578203       28.869361148876855       0.11123603809691827      896.0147921391091        0.0601122173641164
0.185                     0.065                    0.06314232046833307      21.327700184340724       29.012517071465478       0.10047426099302986      933.5828313161315        0.05429652763297491
0.185                     0.065                    0.06375511989524453      21.361371016683922       29.058320209624966       0.09703100028388321      946.1020790796239        0.05243578142400615
0.185                     0.065                    0.06043941860580145      21.179186736943894       28.810491119735985       0.11566160513080286      881.2162896718751        0.06250380422797566
0.185                     0.065                    0.06279785689849002      21.308773314309235       28.98677045391404        0.10240976847506338      926.6545409766641        0.05534248044161864
0.185                     0.065                    0.06022880350383571      21.16761429500644        28.794748884691092       0.11684503101781225      877.3204181753556        0.06314333036870579
0.185                     0.065                    0.059811535432268276     21.144687114165677       28.76356056059642        0.1191896199532995       869.6767417823223        0.06441035175971141
0.185                     0.065                    0.06377849403219257      21.36265533029745        29.060067288321477       0.0968996632691457       946.5845963449848        0.052364806591452547
0.185                     0.065                    0.05871429622223642      21.084719706773345       28.681985640859928       0.12555714966125653      850.3859720185169        0.06785137983321833
0.185                     0.065                    0.040015019435202095     0.783340914511848        1.0655950458145889       2.684671189897409E-9     1.237704338098517        1.4508026434534174E-9
0.185                     0.065                    0.04001537660896448      0.7939666353563897       1.0800494363365092       2.6805050867778963E-9    1.2545741773814174       1.4485512715008917E-9
0.185                     0.065                    0.04001613675229952      0.8165804792467652       1.1108115216176353       2.671639210286161E-9     1.2904829493536503       1.4437601309324885E-9
0.185                     0.065                    0.04002083572310334      0.9563723320455514       1.3009733056225683       2.6168480798708195E-9    1.5126439715234292       1.4141508748181797E-9
0.185                     0.065                    0.04002252915076864      1.006750923244071        1.3695043579418698       2.597108625393793E-9     1.5927847320506223       1.4034836270586159E-9
0.185                     0.065                    0.040007509718279266     0.5599311719262545       0.7616860957321401       2.7722996003290408E-9    0.8834325044821153       1.4981572431430316E-9
0.185                     0.065                    0.04000786695511514      0.570558754595538        0.7761430189332352       2.768129630603809E-9     0.9002669193558557       1.4959037816676551E-9
0.185                     0.065                    0.04000862701577825      0.5931701080272997       0.8069017163913694       2.7592580567799144E-9    0.9360900574724874       1.4911095622475144E-9
0.185                     0.065                    0.040013326148848845     0.732966596393984        0.9970698062563632       2.7044238427167955E-9    1.1577528330863036       1.4614770236283237E-9
0.185                     0.065                    0.04000000000000001      0.3365216953346843       0.4577775074869299       2.8599938297774794E-9    0.5299664725531246       1.5455474115845781E-9
0.185                     0.065                    0.04000035729990831      0.3471511397988303       0.4722369633265546       2.8558199936345823E-9    0.5467655803860928       1.5432918606879754E-9
0.185                     0.065                    0.040001117277917615     0.369760003333133        0.5029922737250474       2.8469427264410517E-9    0.5825033819686473       1.5384945645574543E-9
0.185                     0.065                    0.040005816573205503     0.5095611258752825       0.6931666675559464       2.7920654433175073E-9    0.8036695998617679       1.508838751316421E-9
0.185                     0.065                    0.0452386036916769       17.988971098144813       24.470773996824096       0.9493121998621469       248.09095377108625       0.5130105519831692
0.185                     0.065                    0.04521493216917069      17.98042441830523        24.459147769307435       0.9504454699210445       246.79227330155015       0.5136229737960833
0.185                     0.065                    0.044771622190502076     17.820598541917203       24.2417332835874         0.971645596922649        223.5323118780126        0.5250795724332711
0.185                     0.065                    0.04471165367750311      17.7990141164802         24.21237153778001        0.9745096675286959       220.53298243738732       0.5266273229443678
0.185                     0.065                    0.04463595295298852      17.77178018264834        24.175324647426585       0.978123682269978        216.79420999615806       0.5285803450350663
0.185                     0.065                    0.04460092694074463      17.759184280550837       24.158190178099105       0.9797953015113415       215.08193604386153       0.5294836920160091
0.185                     0.065                    0.044173762434619165     17.605836044541963       23.94958736220088        1.0001512661933216       195.05407388393195       0.540484103344515
0.185                     0.065                    0.04408926731218152      17.575564381529585       23.908408185246156       1.004170556910601        191.2705991079808        0.542656137528582
0.185                     0.065                    0.04403361965106154      17.55563936354509        23.881303766137297       1.0068162217668204       188.80938163446152       0.54408586105731
0.185                     0.065                    0.043990178932684185     17.540091623372874       23.860153849677936       1.0088807394337682       186.9046487814028        0.5452015312741826
0.185                     0.065                    0.043578225866173596     17.392945542200525       23.659987954850397       1.0284222029017223       169.53384213369148       0.5557617842254349
0.185                     0.065                    0.04346942676595532      17.354176305210633       23.607249350111253       1.0335714627855526       165.14529629390083       0.5585444564124058
0.185                     0.065                    0.04244088015851406      17.1393931137768         23.315075278163583       0.9750364916907862       116.03100960007448       0.5269120199642009
0.185                     0.065                    0.042651466268188214     17.18331878098435        23.374828282881374       0.98702503849604         125.2368610943718        0.5333906589355871
0.185                     0.065                    0.04267533127107189      17.188298341460502       23.381602083247756       0.9883835400323429       126.30546531841345       0.5341247963701529
0.185                     0.065                    0.0427115618261642       17.195858667391825       23.39188655289298        0.9904458955679477       127.93789916734306       0.5352392981661477
0.185                     0.065                    0.042783732910284415     17.210921048390436       23.412376225107145       0.9945539226664468       131.2266271760544        0.5374592856999315
0.185                     0.065                    0.04299881387950183      17.255826980415534       23.473462704578797       1.0067950479818768       141.32927248151051       0.5440744186939832
0.185                     0.065                    0.04302308303057451      17.26089570400269        23.480357795391768       1.0081761644098373       142.49854532543253       0.5448207772693432
0.185                     0.065                    0.04305730505424628      17.268043701440654       23.490081365955085       1.0101236328433938       144.15774217625932       0.5458731938044027
0.185                     0.065                    0.04312658039917969      17.28251537235857        23.509767482879543       1.014065697886961        147.55421103281492       0.5480034950522406
0.185                     0.065                    0.04334614810953467      17.328401237114168       23.572186985360087       1.0265584174148286       158.6654086610014        0.554754590152138
0.185                     0.065                    0.04337081778514006      17.33355847967535        23.579202490386635       1.027961886021123        159.94784727866823       0.5555130278973927
0.185                     0.065                    0.04340307335208836      17.340302085745556       23.58837595890617        1.0297968695658848       161.63532631852033       0.5565046573332252
0.185                     0.065                    0.04242551922587611      17.13722639122671        23.312127840116805       0.9724298531598763       115.24375575676542       0.5255033863537228
0.185                     0.065                    0.04240128498575329      17.133805258754105       23.307474001990457       0.968317278421603        114.00761626376043       0.5232809412646784
0.185                     0.065                    0.04226513233894556      17.114521544915725       23.28124196233772        0.9452074479941681       107.19368295988056       0.510792334391684
0.185                     0.065                    0.04221413364427377      17.107271083734297       23.271379008199016       0.9365491780726682       104.69720555274642       0.5061133849035252
0.185                     0.065                    0.04219906702981774      17.105126239631623       23.268461331862298       0.9339910412357676       103.96535176739377       0.5047309617228924
0.185                     0.065                    0.042175430927710984     17.101758873666803       23.26388063344213        0.9299777088626201       102.82240837392361       0.5025621474420486
0.185                     0.065                    0.04203744168754158      17.08203720936241        23.237052840601674       0.9065427905415588       96.27330474281263        0.48989786230454174
0.185                     0.065                    0.0419875563893046       17.074881372477094       23.227318605873997       0.8980686646399286       93.95634204026396        0.4853184246790678
0.185                     0.065                    0.041972803073164505     17.07276243281621        23.224436167891774       0.8955622780993182       93.2761468058553         0.48396396748061565
0.185                     0.065                    0.04194974670355185      17.069448566895943       23.219928246702274       0.8916451255831466       92.21769931152198        0.4818471290213445
0.185                     0.065                    0.04180994927427237      17.04929332922201        23.19251065493006        0.8678892857073297       85.91666484398527        0.4690094171186782
0.185                     0.065                    0.041761143968157624     17.042231867010752       23.182904800047307       0.8595937371780048       83.76293430898723        0.46452648312641504
0.185                     0.065                    0.04140207558787482      16.771433559029596       22.814532192343655       0.7599971512833278       66.43025120841018        0.41070425318679465
0.185                     0.065                    0.04141098588919342      16.77814541052301        22.823662464447573       0.7624692327981044       66.84188089982929        0.41204017186836966
0.185                     0.065                    0.041384400602499        16.758120773572397       22.796422531573512       0.7550933033709172       65.61637415738186        0.4080542022080412
0.185                     0.065                    0.041277440973924676     16.67759392392223        22.686880172107013       0.7254154397993138       60.76533706697433        0.39201621473167636
0.185                     0.065                    0.04123570740182356      16.646190349644662       22.644161232560876       0.7138346253548826       58.90636745877702        0.385757915289812
0.185                     0.065                    0.04157624103826147      16.902701568907382       22.993098814370384       0.8083124466423082       74.64272685741574        0.4368139527618551
0.185                     0.065                    0.041586130745368884     16.910160096055805       23.003244805             0.8110556115070754       75.11982329404526        0.4382963655251793
0.185                     0.065                    0.041558780870957025     16.88953484258847        22.975187840903907       0.8034693286124801       73.80329763495007        0.43419672035489504
0.185                     0.065                    0.04145126671830397      16.808492865650134       22.86494474300275        0.7736444188237485       68.7140256097489         0.41807926875595075
0.185                     0.065                    0.041750256290218724     17.03401111358951        23.171721937061022       0.8565745046175596       83.21394138272942        0.4628948827291754
0.185                     0.065                    0.04173303091934099      17.021006286531538       23.154031198548676       0.8517976864575307       82.34850057471007        0.46031347892823876
0.185                     0.065                    0.04162497229702225      16.939458076837894       23.043099461632128       0.8218289522198403       77.00511383276381        0.44411830425783316
0.185                     0.065                    0.04110961852480664      16.33777269004206        22.22461423325845        0.6752786079545583       52.74744537306232        0.36492215254317784
0.185                     0.065                    0.0411155110076447       16.35218634917509        22.244221435537405       0.6770803434648893       53.03068327043946        0.36589581466278065
0.185                     0.065                    0.04112862893261157      16.384274075168047       22.287871040985195       0.6810914244976444       53.6628229469972         0.3680634123139661
0.185                     0.065                    0.041206719874862976     16.575287657442356       22.54771081595934        0.7049703160659029       57.47199919473741        0.3809676216414744
0.185                     0.065                    0.04098353002588         16.02933596798198        21.80504130289603        0.6367269223062594       46.790870233556106       0.3440887306855556
0.185                     0.065                    0.04098944980822054      16.04381733860427        21.824740614531418       0.6385368077296325       47.06614672332148        0.3450667970373899
0.185                     0.065                    0.04100253950011901      16.075838070334278       21.868299086280743       0.6425388192115634       47.676343094190656       0.34722949348191734
0.185                     0.065                    0.04108067606074806      16.266975616038664       22.12830749130409        0.6664290484040739       51.362642819135154       0.3601398296883139
0.185                     0.065                    0.040857441893941554     15.720880351298819       21.385442669782265       0.5981795423075373       41.02683082676016        0.3232576356111207
0.185                     0.065                    0.04086338898226998      15.73542944874908        21.40523411163965        0.599997578869597        41.29450881807522        0.3242401068575276
0.185                     0.065                    0.04087645054192877      15.767383403876135       21.44870174577796        0.6039905558469884       41.88384439438237        0.3263979210344918
0.185                     0.065                    0.04095463245501591      15.958644156196387       21.708877751340285       0.627892052371108        45.45317298018393        0.3393143461334666
0.185                     0.065                    0.04076656789268691      15.023040492880082       20.436156500597093       0.5694546336486535       36.62604264558071        0.3077346272173594
0.185                     0.065                    0.04077086238280866      15.05601909106625        20.481017978140358       0.5708121224480593       36.831527225776064       0.30846821736651714
0.185                     0.065                    0.04078026468846437      15.12822192500555        20.57923700476612        0.573784186202868        37.28226467086768        0.31007432762993203
0.185                     0.065                    0.040836591278355906     15.5607655845102         21.167635200402177       0.5915888153894929       40.007238172467765       0.3196959912388191
0.185                     0.065                    0.04067569497024035      14.325193900111273       19.48686117053453        0.5407292845072853       32.33431253372264        0.29221138078582454
0.185                     0.065                    0.0406799943172272       14.358210503896066       19.53177434788928        0.5420883454211872       32.534964159854596       0.2929458205093642
0.185                     0.065                    0.040689379409838695     14.430282701390086       19.62981566702356        0.5450550486462398       32.97378725372662        0.2945490339298548
0.185                     0.065                    0.040745741523926925     14.863108470720526       20.21859762256181        0.5628713914494292       35.63297834312722        0.3041770276047626
0.185                     0.065                    0.040584823119668496     13.627340616420724       18.53755673867105        0.5120034977378793       28.147635876709696       0.2766878978590659
0.185                     0.065                    0.040589127314325776     13.66039515224963        18.582521515779533       0.5133641277057961       28.34362775782655        0.27742318550309614
0.185                     0.065                    0.040598495257146525     13.732337183487628       18.68038576703063        0.5163254895846615       28.770984428080794       0.2790235124475084
0.185                     0.065                    0.040654892745341814     14.165443862016483       19.269549849232515       0.5341534960511537       31.36677927632047        0.28865780919357653
0.185                     0.065                    0.04054607514419286      13.095203566557942       17.813679569071738       0.4717910130905021       26.29577135380149        0.25495697630495395
0.185                     0.065                    0.04054789505275129      13.120196851824357       17.847678458272004       0.4736797181716925       26.382295196528155       0.2559776369857875
0.185                     0.065                    0.040551848433734876     13.174489691547521       17.92153414480698        0.4777825416317709       26.570404178885713       0.25819481246109477
0.185                     0.065                    0.04057603344445945      13.506629329758079       18.37335064824645        0.5028816559370364       27.725768042636556       0.27175843303386593
0.185                     0.065                    0.040507327132893296     12.563067830733743       17.089804186986626       0.4315779692158895       24.46408462476185        0.233225752543125
0.185                     0.065                    0.040509148722628924     12.588084119189542       17.123834367906998       0.4334684435331344       24.549747158014505       0.23424736932329557